15
	Energy:       8.5309004
C          4.61803      -11.38633        6.87952
O          4.58126      -10.30963        7.78524
C          5.29510      -10.94507        5.56876
H          6.32558      -10.58094        5.76952
H          5.35165      -11.79177        4.85089
H          4.72194      -10.12087        5.09254
C          3.18823      -11.88623        6.60205
H          2.57538      -11.07976        6.14529
H          2.69841      -12.20125        7.54843
H          3.20257      -12.75179        5.90488
C          5.43651      -12.51804        7.51759
H          6.46946      -12.17199        7.73752
H          5.49527      -13.39575        6.83794
H          4.97000      -12.84181        8.47292
H          4.05159       -9.57793        7.37174
