17
Energy = -28.2342 Eh      |g| = 0.232543 Eh/A
C     -0.4366358     0.9710279    -0.8619611    
O      0.2488751     2.1197841    -0.7950910    
O     -1.5847491     0.9497246    -1.0970091    
C      0.3072363    -0.2962291    -0.5718521    
N      1.7148355    -0.1436982    -0.3565405    
H      0.2720811    -1.0864875    -1.3123623    
C     -0.3172975    -1.0505917     0.6424448    
C      0.2809648    -2.4633140     0.8624411    
H      2.1933386     0.3610289    -1.1046385    
H      1.7504914     0.3030363     0.5411834    
H     -0.3066450     2.9570784    -0.8012045    
H     -1.3413656    -1.3527873     0.5473368    
O     -0.2447125    -0.3327988     1.8317426    
H     -0.7952788     0.4254881     2.0036773    
H      0.2908778    -3.1120977    -0.0353114    
H     -0.2908505    -2.9921723     1.7191761    
H      1.2695231    -2.4713773     1.2691582    
    -0.0001505     0.0001872    -0.0002719    
     0.0000067     0.0000910    -0.0000549    
    -0.0001100     0.0000253    -0.0001050    
     0.0002728     0.0001886    -0.0001543    
     0.0000566     0.0000922    -0.0003208    
     0.0001821    -0.0003847     0.0003301    
     0.0001536     0.0000980    -0.0000312    
    -0.0002824    -0.0002885    -0.0000284    
    -0.0003450     0.0000576     0.0010393    
    -0.0004427    -0.0010105    -0.0001635    
    -0.0003609    -0.0009885     0.0007542    
    -0.0000928    -0.0002179     0.0001133    
    -0.0000151     0.0000041     0.0000893    
     0.0008196     0.0006946     0.0004533    
     0.0004856     0.0003970     0.0004826    
    -0.0000389     0.0004527    -0.0009379    
     0.0000877    -0.0003614     0.0007930    
17
Energy = -28.2429 Eh      |g| = 0.20079 Eh/A
C     -0.4473381     0.9850288    -0.9155594    
O      0.2746591     2.1207356    -0.7964419    
O     -1.6635486     0.9655054    -1.1299943    
C      0.3523694    -0.3182254    -0.6084220    
N      1.7218166    -0.1660138    -0.3665911    
H      0.2181492    -1.1057003    -1.3648983    
C     -0.3162783    -1.0578356     0.6534037    
C      0.2912094    -2.4759380     0.8989970    
H      2.2086013     0.5208637    -1.0093789    
H      1.7856496     0.1628523     0.5988298    
H     -0.4371659     2.7819799    -0.6654387    
H     -1.4035080    -1.2912730     0.4444711    
O     -0.2060891    -0.3337968     1.8893584    
H     -0.6548974     0.5288907     1.9779110    
H      0.3631314    -3.0402946    -0.0169839    
H     -0.4151673    -2.9390510     1.5503816    
H      1.2732938    -2.4876865     1.3822743    
    -0.0001777    -0.0001349    -0.0002436    
     0.0001848    -0.0001605     0.0000217    
    -0.0002866     0.0001219    -0.0001366    
    -0.0000176    -0.0003147    -0.0001753    
     0.0000820    -0.0002153     0.0001733    
    -0.0005192     0.0002151    -0.0006130    
    -0.0001435    -0.0001024     0.0001080    
     0.0004828     0.0003577     0.0002042    
     0.0003534     0.0011889    -0.0000106    
     0.0006086    -0.0004058     0.0005539    
    -0.0009334    -0.0001822     0.0005218    
    -0.0000700     0.0007422    -0.0007876    
     0.0002742     0.0000021     0.0003339    
     0.0006287     0.0000911    -0.0005955    
     0.0002635     0.0000777    -0.0005266    
    -0.0014383    -0.0003852     0.0000531    
    -0.0003022     0.0001410     0.0002423    
17
Energy = -28.2367 Eh      |g| = 0.235821 Eh/A
C     -0.4995808     0.9131687    -0.9500019    
O      0.2359468     2.0790491    -0.7784586    
O     -1.6695641     0.9996698    -1.1511314    
C      0.3075438    -0.3813635    -0.6193502    
N      1.7846337    -0.1574533    -0.3425142    
H      0.1069670    -1.0111488    -1.5195197    
C     -0.3303770    -1.0595794     0.6796663    
C      0.2932237    -2.4256232     0.9221234    
H      2.1446494     0.5996097    -0.8555178    
H      1.9394837     0.0669471     0.6376104    
H     -0.4547582     2.7162272    -0.6201048    
H     -1.3581888    -1.0833717     0.3041457    
O     -0.1404395    -0.3512796     1.9268326    
H     -0.5364786     0.5207064     1.7930769    
H      0.4168313    -2.9549039    -0.0411241    
H     -0.5523713    -2.9849492     1.4952194    
H      1.2560533    -2.4089813     1.4697302    
    -0.0000566    -0.0003876    -0.0000066    
    -0.0004641    -0.0002515     0.0001247    
     0.0000369     0.0001487    -0.0000956    
    -0.0001732    -0.0001478     0.0000863    
     0.0002720     0.0001646     0.0000387    
    -0.0003543     0.0005126    -0.0005755    
     0.0001103     0.0001105     0.0000893    
    -0.0005449    -0.0000395    -0.0000017    
    -0.0006710    -0.0001332     0.0010474    
     0.0006112    -0.0005128    -0.0001393    
     0.0005858    -0.0003557    -0.0000463    
     0.0001950     0.0009164    -0.0003397    
     0.0002844    -0.0001486    -0.0000304    
     0.0004635     0.0000070    -0.0008756    
     0.0002543     0.0007258     0.0004474    
     0.0004618     0.0001555    -0.0007034    
     0.0000677     0.0005081     0.0005524    
17
Energy = -28.2362 Eh      |g| = 0.250216 Eh/A
C     -0.4863421     0.8695935    -0.9020050    
O      0.1704635     1.9746550    -0.7460133    
O     -1.6691293     1.0002982    -1.1773136    
C      0.3385712    -0.3659115    -0.5832807    
N      1.7608669    -0.1817385    -0.3414003    
H      0.1182910    -0.9217980    -1.5187538    
C     -0.2943353    -1.0240656     0.6648076    
C      0.2120630    -2.4132945     0.9245558    
H      2.0725947     0.7559233    -0.7900575    
H      2.0164444    -0.0689135     0.6518147    
H     -0.4241811     2.8060142    -0.6552989    
H     -1.3642573    -0.9548849     0.3629279    
O     -0.0951442    -0.3634744     1.8652011    
H     -0.4154376     0.5118183     1.6762754    
H      0.5024449    -2.8447827    -0.0102782    
H     -0.4741549    -3.0375494     1.4339404    
H      1.0952390    -2.2960377     1.5153978    
    -0.0001103    -0.0000042     0.0003376    
    -0.0001116    -0.0004421     0.0002167    
     0.0000498    -0.0001714    -0.0001179    
     0.0003612     0.0001906     0.0001872    
    -0.0002729    -0.0001163    -0.0001270    
     0.0003956     0.0002198     0.0004669    
     0.0000496     0.0001266    -0.0002222    
     0.0000457     0.0003550    -0.0000722    
    -0.0002726     0.0007466     0.0000872    
     0.0000966    -0.0007248     0.0001883    
     0.0000313     0.0005258    -0.0003542    
    -0.0001386     0.0002700     0.0007260    
     0.0001749     0.0000540    -0.0004165    
     0.0005939     0.0000627    -0.0001975    
     0.0005445     0.0001282    -0.0004165    
    -0.0005492    -0.0010476     0.0005252    
    -0.0012379     0.0004588    -0.0000023    
17
Energy = -28.2385 Eh      |g| = 0.278883 Eh/A
C     -0.5443401     0.8808050    -0.8252445    
O      0.1878123     1.9869033    -0.6667090    
O     -1.6707723     0.9175303    -1.2025328    
C      0.3682178    -0.3248490    -0.5530965    
N      1.7548377    -0.1325513    -0.3784972    
H      0.2475861    -0.9704065    -1.4185653    
C     -0.3430309    -1.0179313     0.6019655    
C      0.1763031    -2.4140755     0.8687911    
H      1.9842787     0.7267462    -0.6984301    
H      1.9667108    -0.2379283     0.5982265    
H     -0.3208484     2.7467745    -0.7958136    
H     -1.4252214    -0.9732598     0.5260348    
O     -0.0440883    -0.3221788     1.7858402    
H     -0.3031263     0.6174231     1.6970449    
H      0.5939009    -2.8450275    -0.0517791    
H     -0.5208522    -3.1396620     1.4463298    
H      0.9973540    -2.2032537     1.6289393    
    -0.0001156     0.0000567     0.0003466    
     0.0002345     0.0003002     0.0004584    
    -0.0001553    -0.0004970    -0.0001317    
    -0.0002215     0.0001329     0.0000480    
     0.0001416     0.0002768    -0.0000725    
     0.0005987    -0.0005595     0.0002161    
    -0.0003710    -0.0000429    -0.0002223    
    -0.0003174    -0.0003942    -0.0002661    
    -0.0002114    -0.0000181     0.0003827    
    -0.0003347    -0.0007323    -0.0004858    
     0.0004971    -0.0003573    -0.0008102    
    -0.0004725    -0.0003009     0.0005241    
     0.0002785     0.0003299    -0.0002792    
     0.0005030     0.0005609     0.0002665    
     0.0002314    -0.0000088     0.0002347    
     0.0003577     0.0003544    -0.0006690    
    -0.0000169     0.0003032     0.0006863    
17
Energy = -28.2296 Eh      |g| = 0.261395 Eh/A
C     -0.5334429     0.9018059    -0.7958089    
O      0.2326004     2.0287271    -0.5618408    
O     -1.6829585     0.8134898    -1.2130334    
C      0.2766714    -0.3421019    -0.5887192    
N      1.7528689    -0.1177745    -0.3899422    
H      0.3096227    -1.0704042    -1.4193561    
C     -0.4188851    -1.0399059     0.6180808    
C      0.1875419    -2.4393559     0.8672931    
H      2.0274921     0.9080697    -0.6494719    
H      1.9584395    -0.3639099     0.5983927    
H     -0.2883639     2.8160233    -0.9903342    
H     -1.5323339    -1.0529232     0.5517050    
O      0.0192136    -0.2377845     1.7460622    
H     -0.2001870     0.6892766     1.7397608    
H      0.6423027    -2.8823941     0.0048486    
H     -0.5357478    -3.0944357     1.2784251    
H      0.8980348    -2.2377096     1.6144296    
     0.0000332     0.0001088    -0.0001211    
    -0.0000451     0.0002197     0.0003858    
     0.0001726    -0.0003814     0.0000707    
    -0.0003645    -0.0002669    -0.0002894    
    -0.0001307     0.0001561    -0.0001156    
    -0.0000772    -0.0001871    -0.0000877    
    -0.0002648    -0.0000900     0.0002959    
     0.0004091     0.0003727     0.0000733    
     0.0001447     0.0003316     0.0005501    
     0.0001697    -0.0003463     0.0001948    
     0.0004003     0.0001015    -0.0006284    
    -0.0002918    -0.0003551    -0.0001318    
     0.0002854     0.0003071    -0.0001140    
     0.0003432     0.0003265     0.0000236    
     0.0003174    -0.0003167     0.0000467    
    -0.0010336    -0.0005719    -0.0003445    
    -0.0006055    -0.0004846    -0.0004639    
17
Energy = -28.2305 Eh      |g| = 0.279809 Eh/A
C     -0.4952186     0.8971717    -0.8571118    
O      0.1487553     2.0653121    -0.5180108    
O     -1.6308496     0.7793413    -1.1883234    
C      0.2738787    -0.3872057    -0.6220117    
N      1.6981512    -0.0907468    -0.3916349    
H      0.1940845    -1.0657588    -1.4802713    
C     -0.4143360    -1.0159029     0.6788150    
C      0.1705639    -2.4046903     0.8584607    
H      1.9822091     0.8278258    -0.4541768    
H      1.9815380    -0.3543284     0.5135335    
H     -0.1391811     2.7718456    -1.0354702    
H     -1.5031782    -1.0998533     0.5216276    
O      0.0663316    -0.2044108     1.7361376    
H     -0.1698016     0.7427720     1.6792393    
H      0.6879210    -2.8945545     0.0142980    
H     -0.6575747    -3.1361557     1.1651634    
H      0.9642511    -2.3448932     1.7041260    
     0.0004042    -0.0001592    -0.0002881    
    -0.0004879    -0.0000750     0.0001705    
     0.0001198     0.0000250     0.0000688    
     0.0002726    -0.0000277     0.0000278    
    -0.0003856    -0.0001672     0.0000578    
    -0.0008024     0.0000922    -0.0004295    
     0.0003004     0.0002760     0.0001423    
    -0.0003979    -0.0002079     0.0000261    
    -0.0003057     0.0000944     0.0008534    
     0.0000517     0.0001247    -0.0005613    
     0.0004212     0.0003073    -0.0003589    
     0.0004072    -0.0000245    -0.0000493    
     0.0001301     0.0000908     0.0000127    
     0.0000347    -0.0000501    -0.0004942    
     0.0000071     0.0003239     0.0001680    
     0.0002331     0.0004453    -0.0007416    
     0.0005156    -0.0005344     0.0006786    
17
Energy = -28.2319 Eh      |g| = 0.275562 Eh/A
C     -0.4495106     0.8509350    -0.9035771    
O      0.0595004     2.0323529    -0.4978021    
O     -1.6157617     0.8124087    -1.1948364    
C      0.3225763    -0.3740071    -0.6106295    
N      1.6627932    -0.1372192    -0.4055015    
H      0.0333049    -1.0032576    -1.5003482    
C     -0.3004084    -0.9740189     0.6647755    
C      0.1748243    -2.4386777     0.9255261    
H      1.8574735     0.9095950    -0.3449615    
H      2.0052680    -0.4454532     0.5396207    
H     -0.1167140     2.8346219    -1.0853521    
H     -1.3927544    -1.0241458     0.5427478    
O      0.0782412    -0.1944930     1.7565196    
H     -0.1818480     0.7079297     1.5491473    
H      0.6691161    -2.7625082     0.0301849    
H     -0.6665734    -3.0876141     1.0647691    
H      0.8674760    -2.4841469     1.6906357    
    -0.0001626    -0.0001472    -0.0001364    
    -0.0002993    -0.0000066    -0.0000577    
     0.0000966     0.0001937    -0.0001176    
    -0.0000307     0.0000154    -0.0000240    
     0.0003216     0.0000022    -0.0000272    
    -0.0005046     0.0004149     0.0002992    
     0.0005756    -0.0000060    -0.0001394    
     0.0004332     0.0001423     0.0003495    
    -0.0009039    -0.0002134     0.0002287    
    -0.0000275    -0.0007188     0.0001576    
    -0.0000097    -0.0004069     0.0003129    
     0.0005253     0.0006191     0.0001738    
     0.0000234     0.0000056     0.0001496    
    -0.0001249    -0.0000295    -0.0005895    
    -0.0000154     0.0006331    -0.0001589    
    -0.0008522    -0.0004149    -0.0000591    
    -0.0009448    -0.0006758    -0.0003159    
17
Energy = -28.2272 Eh      |g| = 0.233847 Eh/A
C     -0.5120320     0.8708515    -0.8817460    
O      0.0550436     2.0229101    -0.5025354    
O     -1.6453202     0.8428695    -1.2628406    
C      0.3040333    -0.3754347    -0.6165371    
N      1.7912442    -0.1321297    -0.3988765    
H      0.0071781    -0.9926197    -1.4457131    
C     -0.2240799    -1.0083651     0.6767096    
C      0.1692699    -2.4229877     0.8987784    
H      1.7024456     0.8612521    -0.3041898    
H      1.9621624    -0.5855580     0.4666706    
H     -0.2092093     2.7792390    -1.0390563    
H     -1.3077829    -0.8935045     0.5761178    
O      0.0826738    -0.1771981     1.7838400    
H     -0.1887015     0.6964812     1.4869705    
H      0.7006848    -2.6868992    -0.0198484    
H     -0.7261226    -3.0795075     1.0588486    
H      0.8335245    -2.6244286     1.8617740    
    -0.0002317     0.0002394     0.0002990    
     0.0002251    -0.0002068     0.0001043    
    -0.0003698     0.0000906    -0.0004685    
     0.0000833     0.0000446     0.0000636    
     0.0004685    -0.0001256    -0.0000959    
     0.0001329    -0.0004289    -0.0000702    
     0.0000834    -0.0001127     0.0002401    
    -0.0002657    -0.0001840    -0.0002560    
    -0.0002887     0.0004280     0.0003283    
    -0.0001020    -0.0005908    -0.0003477    
    -0.0008918     0.0004597    -0.0002489    
     0.0001823     0.0004154     0.0001119    
     0.0000397     0.0001429     0.0000836    
     0.0000768    -0.0000987     0.0000243    
     0.0002334     0.0000465    -0.0000976    
     0.0004674     0.0005972    -0.0001427    
    -0.0000385    -0.0004566     0.0008599    
17
Energy = -28.2382 Eh      |g| = 0.22509 Eh/A
C     -0.5921838     0.8961991    -0.8334053    
O      0.1026716     2.0233414    -0.5140442    
O     -1.6883960     0.8633460    -1.3569803    
C      0.3473603    -0.3744679    -0.5990088    
N      1.7894193    -0.1286899    -0.4535675    
H      0.1102917    -1.0893484    -1.4421934    
C     -0.2607189    -0.9842283     0.7346594    
C      0.1998925    -2.4722718     0.9043060    
H      1.8115543     0.8710807    -0.1944719    
H      2.0183924    -0.6745318     0.4246257    
H     -0.3771091     2.7556323    -0.9576424    
H     -1.3478692    -0.8925481     0.5937017    
O      0.1100910    -0.1576723     1.8040138    
H     -0.1670373     0.7392022     1.5462731    
H      0.7552873    -2.7552749     0.0275956    
H     -0.7231985    -3.0305634     1.0038485    
H      0.7010234    -2.6264718     1.7848478    
    -0.0004161    -0.0000610     0.0000454    
     0.0000805     0.0001871    -0.0002232    
     0.0000505     0.0001187    -0.0003158    
     0.0001202    -0.0000599     0.0000413    
    -0.0003443     0.0001457    -0.0001918    
     0.0007393    -0.0001733     0.0003368    
    -0.0002547     0.0002039     0.0001823    
     0.0004211    -0.0000190     0.0001496    
     0.0010655    -0.0005579     0.0005296    
     0.0004738    -0.0000357    -0.0004975    
    -0.0004582    -0.0006869     0.0009968    
    -0.0004150    -0.0003200     0.0000894    
     0.0001821     0.0000536     0.0001109    
     0.0001361     0.0003505     0.0004642    
     0.0002752    -0.0005470     0.0003905    
    -0.0007596    -0.0004121    -0.0003126    
    -0.0007152     0.0002423    -0.0008696    
